# vtk DataFile Version 2.0
SOFIA mesh
ASCII
DATASET UNSTRUCTURED_GRID
POINTS 6515 double
5.0100000780234501e+02 5.3522026294999999e-08 0.0000000000000000e+00
1.0000000000000000e+00 5.3522026294999999e-08 0.0000000000000000e+00
9.9578207292288301e-01 -5.9678865328413231e-04 0.0000000000000000e+00
9.9092414379883398e-01 -1.2802896144888569e-03 0.0000000000000000e+00
9.8533689529034196e-01 -2.0612933616780591e-03 0.0000000000000000e+00
9.7892113027925798e-01 -2.9514461984188078e-03 0.0000000000000000e+00
9.7156754608126605e-01 -3.9630730448576620e-03 0.0000000000000000e+00
9.6315683601869195e-01 -5.1089814585775451e-03 0.0000000000000000e+00
9.5356024291612196e-01 -6.4021778800901208e-03 0.0000000000000000e+00
9.4264071058222698e-01 -7.8554813271070421e-03 0.0000000000000000e+00
9.3025479627648300e-01 -9.4810222473501321e-03 0.0000000000000000e+00
9.1625551450096798e-01 -1.1289618860090349e-02 0.0000000000000000e+00
9.0049627348073602e-01 -1.3290030475800130e-02 0.0000000000000000e+00
8.8283603204568395e-01 -1.5488096597642390e-02 0.0000000000000000e+00
8.6314573749605905e-01 -1.7885781652952890e-02 0.0000000000000000e+00
8.4131599701209603e-01 -2.0480156835624989e-02 0.0000000000000000e+00
8.1726578261662997e-01 -2.3262362013535851e-02 0.0000000000000000e+00
7.9095177721656096e-01 -2.6216601308307531e-02 0.0000000000000000e+00
7.6237775246751904e-01 -2.9319237448852700e-02 0.0000000000000000e+00
7.3160315852456104e-01 -3.2538064144436357e-02 0.0000000000000000e+00
6.9874994463528495e-01 -3.5831856296648978e-02 0.0000000000000000e+00
6.6400656983110995e-01 -3.9150324647394173e-02 0.0000000000000000e+00
6.2762825259028998e-01 -4.2434628588619398e-02 0.0000000000000000e+00
5.8993277569230795e-01 -4.5618612894288743e-02 0.0000000000000000e+00
5.5129160033635305e-01 -4.8630908086057613e-02 0.0000000000000000e+00
5.1211660010657700e-01 -5.1397948872901583e-02 0.0000000000000000e+00
4.7284330823916798e-01 -5.3847814160728709e-02 0.0000000000000000e+00
4.3391206761302198e-01 -5.5914600646506052e-02 0.0000000000000000e+00
3.9574877795878699e-01 -5.7542854881353737e-02 0.0000000000000000e+00
3.5874698440429498e-01 -5.8691481833843671e-02 0.0000000000000000e+00
3.2325283909023500e-01 -5.9336561076648843e-02 0.0000000000000000e+00
2.8955404451818700e-01 -5.9472651205472689e-02 0.0000000000000000e+00
2.5787334484812302e-01 -5.9112417960414339e-02 0.0000000000000000e+00
2.2836657498569499e-01 -5.8284722320426828e-02 0.0000000000000000e+00
2.0112479893153301e-01 -5.7031505123580302e-02 0.0000000000000000e+00
1.7617973077735100e-01 -5.5403996850080309e-02 0.0000000000000000e+00
1.5351145737676899e-01 -5.3458759931057732e-02 0.0000000000000000e+00
1.3305746403782001e-01 -5.1254025339744873e-02 0.0000000000000000e+00
1.1472206445658201e-01 -4.8846622966762239e-02 0.0000000000000000e+00
9.8385515603434476e-02 -4.6289673594749441e-02 0.0000000000000000e+00
8.3912305984625901e-02 -4.3631065181297828e-02 0.0000000000000000e+00
7.1158310192402277e-02 -4.0912643645213340e-02 0.0000000000000000e+00
5.9976670812418732e-02 -3.8169993338354503e-02 0.0000000000000000e+00
5.0222412690907568e-02 -3.5432666892558112e-02 0.0000000000000000e+00
4.1755876664373012e-02 -3.2724723436593862e-02 0.0000000000000000e+00
3.4445086132214982e-02 -3.0065473224615651e-02 0.0000000000000000e+00
2.8167238527351882e-02 -2.7470327807141641e-02 0.0000000000000000e+00
2.2809438402239271e-02 -2.4951702242794489e-02 0.0000000000000000e+00
1.8268856943473900e-02 -2.2519901841159509e-02 0.0000000000000000e+00
1.4452201769246770e-02 -2.0184026991445721e-02 0.0000000000000000e+00
1.1275160405225200e-02 -1.7952627329391430e-02 0.0000000000000000e+00
8.6609778286643752e-03 -1.5834325280779091e-02 0.0000000000000000e+00
6.5392624569872403e-03 -1.3838098571545410e-02 0.0000000000000000e+00
4.8445502537335294e-03 -1.1972823957178290e-02 0.0000000000000000e+00
3.5153198590163830e-03 -1.0246713666038449e-02 0.0000000000000000e+00
2.4934342352428500e-03 -8.6660196722328619e-03 0.0000000000000000e+00
1.7246230637995260e-03 -7.2340766713121681e-03 0.0000000000000000e+00
1.1591930857403970e-03 -5.9503000222235021e-03 0.0000000000000000e+00
7.5318933248730042e-04 -4.8101774163207206e-03 0.0000000000000000e+00
4.6912844738915982e-04 -3.8057712518732491e-03 0.0000000000000000e+00
2.7623601611171159e-04 -2.9267190157613648e-03 0.0000000000000000e+00
1.5007861464023641e-04 -2.1612998853508692e-03 0.0000000000000000e+00
7.1803273250452284e-05 -1.4973769233995321e-03 0.0000000000000000e+00
2.7212759455424519e-05 -9.2310242719267519e-04 0.0000000000000000e+00
5.8186063438717920e-06 -4.2735924908759732e-04 0.0000000000000000e+00
0.0000000000000000e+00 0.0000000000000000e+00 0.0000000000000000e+00
5.8186063440956510e-06 4.2735924909580988e-04 0.0000000000000000e+00
2.7212759456655661e-05 9.2310242721351107e-04 0.0000000000000000e+00
7.1803273253685443e-05 1.4973769234331270e-03 0.0000000000000000e+00
1.5007861464567089e-04 2.1612998853897938e-03 0.0000000000000000e+00
2.7623601612295048e-04 2.9267190158204798e-03 0.0000000000000000e+00
4.6912844740905520e-04 3.8057712519531908e-03 0.0000000000000000e+00
7.5318933251762588e-04 4.8101774164163967e-03 0.0000000000000000e+00
1.1591930857898849e-03 5.9503000223486303e-03 0.0000000000000000e+00
1.7246230638734540e-03 7.2340766714643744e-03 0.0000000000000000e+00
2.4934342353509702e-03 8.6660196724165760e-03 0.0000000000000000e+00
3.5153198591665802e-03 1.0246713666251510e-02 0.0000000000000000e+00
4.8445502539407274e-03 1.1972823957426170e-02 0.0000000000000000e+00
6.5392624572639044e-03 1.3838098571827120e-02 0.0000000000000000e+00
8.6609778290230987e-03 1.5834325281092479e-02 0.0000000000000000e+00
1.1275160405687530e-02 1.7952627329740550e-02 0.0000000000000000e+00
1.4452201769834361e-02 2.0184026991831201e-02 0.0000000000000000e+00
1.8268856944208989e-02 2.2519901841580661e-02 0.0000000000000000e+00
2.2809438403142281e-02 2.4951702243247869e-02 0.0000000000000000e+00
2.8167238528451769e-02 2.7470327807626860e-02 0.0000000000000000e+00
3.4445086133548283e-02 3.0065473225133151e-02 0.0000000000000000e+00
4.1755876665976403e-02 3.2724723437141383e-02 0.0000000000000000e+00
5.0222412692819803e-02 3.5432666893131751e-02 0.0000000000000000e+00
5.9976670814687799e-02 3.8169993338950749e-02 0.0000000000000000e+00
7.1158310195075639e-02 4.0912643645825753e-02 0.0000000000000000e+00
8.3912305987756397e-02 4.3631065181918657e-02 0.0000000000000000e+00
9.8385515607076313e-02 4.6289673595368661e-02 0.0000000000000000e+00
1.1472206446079600e-01 4.8846622967368358e-02 0.0000000000000000e+00
1.3305746404265401e-01 5.1254025340322473e-02 0.0000000000000000e+00
1.5351145738228000e-01 5.3458759931590882e-02 0.0000000000000000e+00
1.7617973078358401e-01 5.5403996850550703e-02 0.0000000000000000e+00
2.0112479893852800e-01 5.7031505123968831e-02 0.0000000000000000e+00
2.2836657499347399e-01 5.8284722320714161e-02 0.0000000000000000e+00
2.5787334485669500e-01 5.9112417960582343e-02 0.0000000000000000e+00
2.8955404452753802e-01 5.9472651205505628e-02 0.0000000000000000e+00
3.2325283910032598e-01 5.9336561076535267e-02 0.0000000000000000e+00
3.5874698441507502e-01 5.8691481833576607e-02 0.0000000000000000e+00
3.9574877797016300e-01 5.7542854880932512e-02 0.0000000000000000e+00
4.3391206762489198e-01 5.5914600645935612e-02 0.0000000000000000e+00
4.7284330825140702e-01 5.3847814160019977e-02 0.0000000000000000e+00
5.1211660011903304e-01 5.1397948872071081e-02 0.0000000000000000e+00
5.5129160034888702e-01 4.8630908085124470e-02 0.0000000000000000e+00
5.8993277570474600e-01 4.5618612893276858e-02 0.0000000000000000e+00
6.2762825260249999e-01 4.2434628587551003e-02 0.0000000000000000e+00
6.6400656984293105e-01 3.9150324646294719e-02 0.0000000000000000e+00
6.9874994464661599e-01 3.5831856295538728e-02 0.0000000000000000e+00
7.3160315853527302e-01 3.2538064143338298e-02 0.0000000000000000e+00
7.6237775247756401e-01 2.9319237447781279e-02 0.0000000000000000e+00
7.9095177722586596e-01 2.6216601307279319e-02 0.0000000000000000e+00
8.1726578262512795e-01 2.3262362012566790e-02 0.0000000000000000e+00
8.4131599701979698e-01 2.0480156834721371e-02 0.0000000000000000e+00
8.6314573750294599e-01 1.7885781652123810e-02 0.0000000000000000e+00
8.8283603205180405e-01 1.5488096596888519e-02 0.0000000000000000e+00
9.0049627348611205e-01 1.3290030475124070e-02 0.0000000000000000e+00
9.1625551450562803e-01 1.1289618859493269e-02 0.0000000000000000e+00
9.3025479628048402e-01 9.4810222468289206e-03 0.0000000000000000e+00
9.4264071058560694e-01 7.8554813266601808e-03 0.0000000000000000e+00
9.5356024291886599e-01 6.4021778797224904e-03 0.0000000000000000e+00
9.6315683602093505e-01 5.1089814582735149e-03 0.0000000000000000e+00
9.7156754608302898e-01 3.9630730446162431e-03 0.0000000000000000e+00
9.7892113028057604e-01 2.9514461982366150e-03 0.0000000000000000e+00
9.8533689529126900e-01 2.0612933615488868e-03 0.0000000000000000e+00
9.9092414379940397e-01 1.2802896144089679e-03 0.0000000000000000e+00
9.9578207292317999e-01 5.9678865324219396e-04 0.0000000000000000e+00
5.0100000780234501e+02 -3.5662359095823580e-06 0.0000000000000000e+00
5.0100000780234501e+02 3.6732799621723560e-06 0.0000000000000000e+00
5.0100000780234501e+02 -8.3301426993377655e-06 0.0000000000000000e+00
5.0100000780234501e+02 8.4371867519277656e-06 0.0000000000000000e+00
5.0100000780234501e+02 -1.4599845920711851e-05 0.0000000000000000e+00
5.0100000780234501e+02 1.4706889973301849e-05 0.0000000000000000e+00
5.0100000780234501e+02 -2.2851304308642679e-05 0.0000000000000000e+00
5.0100000780234501e+02 2.2958348361232679e-05 0.0000000000000000e+00
5.0100000780234501e+02 -3.3710919731185479e-05 0.0000000000000000e+00
5.0100000780234501e+02 3.3817963783775482e-05 0.0000000000000000e+00
5.0100000780234501e+02 -4.8003089920927367e-05 0.0000000000000000e+00
5.0100000780234501e+02 4.8110133973517357e-05 0.0000000000000000e+00
5.0100000780234501e+02 -6.6812791885308110e-05 0.0000000000000000e+00
[...]
CELL_DATA 12550
SCALARS min_angle double 1
LOOKUP_TABLE default
3.2410788792001738e-02
2.8281290019774207e+01
4.2659016871695321e-02
4.2655337823911330e-02
5.2765602741129437e-02
5.2759958504439250e-02
6.5268244321233113e-02
6.5259610722251005e-02
8.0735867545218623e-02
8.0722661310253796e-02
9.9872944840488156e-02
9.9852744143822378e-02
1.2355203174235849e-01
1.2352113208209163e-01
1.5285423929989425e-01
1.5280697412373853e-01
1.8911964402052708e-01
1.8904734558931816e-01
2.3401017387565717e-01
2.3389958365817407e-01
2.8958820668690943e-01
2.8941904389336137e-01
3.5841502938221204e-01
3.5815627157936392e-01
4.4367450912835454e-01
4.4327870275001086e-01
5.4932892534013666e-01
5.4872348232652213e-01
6.8031605179797339e-01
6.7938993541450832e-01
8.4279946613773904e-01
8.4138282210086368e-01
1.0423209764435717e+00
9.2249327209960601e+00
5.6143009323856456e-02
5.6138030783706827e-02
6.9444366629649562e-02
6.9436729871535513e-02
8.5899297641530883e-02
8.5887616204686587e-02
1.0625664985408824e-01
1.0623878152621916e-01
1.3144371079286041e-01
1.3141637880269061e-01
1.6260905396507697e-01
1.6256724601682093e-01
2.0117584068096175e-01
2.0111188979708386e-01
2.4890821720186815e-01
2.4881039567640800e-01
3.0799415430105948e-01
3.0784452292215603e-01
3.8114899564037108e-01
3.8092011374927442e-01
4.7174518121882819e-01
4.7139507403830949e-01
5.8397518951241767e-01
5.8343964956172856e-01
7.2305682957560691e-01
7.2223763940084562e-01
8.9549279278690630e-01
8.9423970713929879e-01
1.1094000882469865e+00
1.1074832662009233e+00
1.3749299605125949e+00
1.3719977788929494e+00
1.7048055406589027e+00
1.7003200196469559e+00
2.1150133165476666e+00
2.1081512325816019e+00
2.6256960728467953e+00
2.6151974120743211e+00
3.2623097008380193e+00
3.2462451105104693e+00
4.0571242840824473e+00
4.0325374235278808e+00
5.0511703260354235e+00
5.0135256399142953e+00
6.2967517659724752e+00
6.2390757975881108e+00
7.8606662095951654e+00
7.7721953888954225e+00
9.8282967898155658e+00
9.6922988337954816e+00
1.2308832755951139e+01
1.2098948870151400e+01
1.5442361263785768e+01
1.5115994313102270e+01
1.9412047917336530e+01
1.8896696676715997e+01
2.4533378801653118e+01
2.3647103460727063e+01
2.6934520754794651e+01
2.9483133860905788e+01
2.3568392178240888e+01
2.4454667313525089e+01
1.8870561226168704e+01
1.9385912466602267e+01
1.5105367596738384e+01
1.5431734547422097e+01
1.2094559330821761e+01
1.2304443216621506e+01
9.6904711102637346e+00
9.8264690662838916e+00
7.7714305015044358e+00
7.8599013222041316e+00
6.2387545157809772e+00
6.2964304841652936e+00
5.0133902938387838e+00
5.0510349799601215e+00
4.0324802685445942e+00
4.0570671290991127e+00
3.2462209259282839e+00
3.2622855162558451e+00
2.6151871614341764e+00
2.6256858222062451e+00
2.1081468819182736e+00
2.1150089658839906e+00
1.7003181711545059e+00
1.7048036921665863e+00
1.3719969929531060e+00
1.3749291745728061e+00
1.1074829319432546e+00
1.1093997539891953e+00
8.9423956503404778e-01
8.9549265068105299e-01
7.2223757907293107e-01
7.2305676924849149e-01
5.8343962403799665e-01
5.8397516398962335e-01
4.7139506331443259e-01
4.7174517049595638e-01
3.8092010930585812e-01
3.8114899119962303e-01
3.0784452113560512e-01
3.0799415251419315e-01
2.4881039500111965e-01
2.4890821652830941e-01
2.0111188957961357e-01
2.0117584046356063e-01
1.6256724597870803e-01
1.6260905392697386e-01
1.3141637883597093e-01
1.3144371082613382e-01
1.0623878158110908e-01
1.0625664990896894e-01
8.5887616255608701e-02
8.5899297696688998e-02
6.9436729918775406e-02
6.9444366676884250e-02
5.6138030809676019e-02
5.6143009362806785e-02
7.3889125663815572e-02
7.3882392488991533e-02
9.1395143709320878e-02
9.1384816828781953e-02
1.1305174032836916e-01
1.1303594398230710e-01
1.3984458008688874e-01
1.3982041745600454e-01
1.7299423064942709e-01
1.7295727067460939e-01
2.1401258061558612e-01
2.1395604535324553e-01
2.6477303022267801e-01
2.6468655187243240e-01
3.2759793159762113e-01
3.2746565111976883e-01
4.0536768594382733e-01
4.0516534456289183e-01
5.0165711014166892e-01
5.0134760022219871e-01
6.2090625315819437e-01
6.2043281217121737e-01
7.6863489194197998e-01
7.6791069054526018e-01
9.5171262552951597e-01
9.5060483830186715e-01
1.1787000205966565e+00
1.1770054531392034e+00
1.4602808999308783e+00
1.4576886902095803e+00
1.8098119115656921e+00
1.8058464344636882e+00
2.2440232819510539e+00
2.2379567088209433e+00
2.7839143561148529e+00
2.7746326369092218e+00
3.4558990414944826e+00
3.4416962262786832e+00
4.2932686761496672e+00
4.2715305386555702e+00
5.3380506061095669e+00
5.3047660592535220e+00
6.6433447461300439e+00
6.5923460378181415e+00
8.2762100412547230e+00
8.1979764552034435e+00
1.0321145710124771e+01
1.0200877874820415e+01
1.2884212139506344e+01
1.2698607116754097e+01
1.6098131462371096e+01
1.5809588399757317e+01
2.0130655906134894e+01
1.9675441495908448e+01
2.5258665858195119e+01
2.4477851662773435e+01
3.8219985715669445e+01
3.2139878381664971e+01
1.8326084143980122e+01
2.0164783579890628e+01
2.4379956775918814e+01
2.0483220549794318e+01
2.4798015733784883e+01
2.0762116730544189e+01
2.5163005355146048e+01
2.0999226109614238e+01
2.5472798601551027e+01
2.1192414684418054e+01
2.5724922970531988e+01
2.1339819431350247e+01
2.5917052871011883e+01
2.1439952618450590e+01
2.6047271133005065e+01
2.1491773864598866e+01
2.6114218870241213e+01
2.1494737378817131e+01
2.6117182384456967e+01
2.1448816117975522e+01
2.6056134632519072e+01
2.1354502967823375e+01
2.5931736407448977e+01
2.1212788898534246e+01
2.5745297184532902e+01
2.1025117920165250e+01
2.5498690411733957e+01
2.0793317154485781e+01
2.5194205777945399e+01
2.0519495031138884e+01
2.4834290211709458e+01
2.0205886732953459e+01
2.4421059919184763e+01
2.3955328061815859e+01
3.0296575593945839e+01
3.6376670443774252e+01
2.4404754777372119e+01
2.5185568822252193e+01
1.9650596504254050e+01
2.0105810914313057e+01
1.5799363869500930e+01
1.6087906932114727e+01
1.2694346428102504e+01
1.2879951450854740e+01
1.0199091972304791e+01
1.0319359807609228e+01
8.1972252212438761e+00
8.2754588072950508e+00
6.5920292196643899e+00
6.6430279279762132e+00
5.3046321691632672e+00
5.3379167160193557e+00
4.2714738557714869e+00
4.2932119932654862e+00
3.4416721931994227e+00
3.4558750084151444e+00
2.7746224341147618e+00
2.7839041533205280e+00
2.2379523729111694e+00
2.2440189460409075e+00
1.8058445903627445e+00
1.8098100674650188e+00
1.4576879055121259e+00
1.4602801152334870e+00
1.1770051192105575e+00
1.1786996866674735e+00
9.5060469627942967e-01
9.5171248350616555e-01
7.6791063024173178e-01
7.6863483163978585e-01
6.2043278666129964e-01
6.2090622764894310e-01
5.0134758951233827e-01
5.0165709943187731e-01
4.0516534013439170e-01
4.0536768151573949e-01
3.2746564934454631e-01
3.2759792982422797e-01
2.6468655121010876e-01
2.6477302955781767e-01
2.1395604514542343e-01
2.1401258040781890e-01
1.7295727064510780e-01
1.7299423061993180e-01
1.3982041749249785e-01
1.3984458011816331e-01
1.1303594403712068e-01
1.1305174038317510e-01
9.1384816888605599e-02
9.1395143769137752e-02
7.3882392538321934e-02
7.3889125708208908e-02
9.7244564829976787e-02
9.7235463325044583e-02
1.2028435936845139e-01
1.2027040185235439e-01
1.4878693073199192e-01
1.4876558083278912e-01
1.8404964169452187e-01
1.8401698415940784e-01
2.2767907778033666e-01
2.2762912366944654e-01
2.8166532698230784e-01
2.8158891538303571e-01
3.4847439336715874e-01
3.4835751132485548e-01
4.3116331682473857e-01
4.3098452940905996e-01
5.3352378811588475e-01
5.3325030713496302e-01
6.6026161607681000e-01
6.5984328618364019e-01
8.1722142821497212e-01
8.1658152669829842e-01
1.0116686024427772e+00
1.0106897634751628e+00
1.2526438038053260e+00
1.2511464809853658e+00
1.5514098277109465e+00
1.5491193332156874e+00
1.9220159187975079e+00
1.9185119650609674e+00
2.3820114534544206e+00
2.3766508705948550e+00
2.9533487099303590e+00
2.9451469819079761e+00
3.6635226764578164e+00
3.6509721023549808e+00
4.5470024895500805e+00
4.5277924146051394e+00
5.6470098145822423e+00
5.6175944616291611e+00
7.0176860927829825e+00
6.9726123092112866e+00
8.7266504783919778e+00
8.6574991514760207e+00
1.0857872968379837e+01
1.0751555644699229e+01
1.3514702100447545e+01
1.3350613002327256e+01
1.6823026159348146e+01
1.6567947218915716e+01
2.0936117757263595e+01
2.0533898591078824e+01
2.6098355379210467e+01
2.5407518456021304e+01
3.8084429948850627e+01
3.2813031200278658e+01
4.4999687454547988e+01
1.8777462786645025e+01
1.6668944816078941e+01
1.8674961219095554e+01
1.7456024250514698e+01
2.0180198770908600e+01
1.8081288211635385e+01
2.1344442442008269e+01
1.8594278070696088e+01
2.2226941401844272e+01
1.9029983282923929e+01
2.2911972014743483e+01
1.9408224897439421e+01
2.3464970581701248e+01
1.9738307189808200e+01
2.3925076745953504e+01
2.0023545219202493e+01
2.4311894514543599e+01
2.0264286623016392e+01
2.4633592737018745e+01
2.0459623923786811e+01
2.4892583424068011e+01
2.0608284777547411e+01
2.5088782748584677e+01
2.0709077329267139e+01
2.5221292662381639e+01
2.0761111837199444e+01
2.5289212808042087e+01
2.0763909891807412e+01
2.5292010862578351e+01
2.0717450854540527e+01
2.5229666187341856e+01
2.0622173831069667e+01
2.5102671801142410e+01
2.0478936014871930e+01
2.4911895512348160e+01
2.0288911630555887e+01
2.4658217736723476e+01
2.0053387473191929e+01
2.4341736747563939e+01
1.9773355792406026e+01
2.3960125295040388e+01
1.9448705876355550e+01
2.3505451431170592e+01
1.9076669533697213e+01
2.2958657971034139e+01
1.8649051792032793e+01
2.2281714500939994e+01
1.8147964392357597e+01
2.1411117426274114e+01
1.7541034619322161e+01
2.0265207114535357e+01
1.6780521715154084e+01
1.8786535246945487e+01
1.7020245939865688e+01
1.3549872619188925e+01
4.3132441250392361e+01
1.6910211306293792e+01
3.1235166379951924e+01
3.6506555808778209e+01
2.5338626773264682e+01
2.6029463580604943e+01
2.0510158437916672e+01
2.0912377603939628e+01
1.6558070118731358e+01
1.6813149059163710e+01
1.3346463965738533e+01
1.3510553063858794e+01
1.0749806033996700e+01
1.0856123357677250e+01
8.6567597824447446e+00
8.7259111093607125e+00
6.9722993789900736e+00
7.0173731625617091e+00
5.6174618447890161e+00
5.6468771977420884e+00
4.5277361472327380e+00
4.5469462221778905e+00
3.6509482039527530e+00
3.6634987780554598e+00
2.9451368222974175e+00
2.9533385503196619e+00
2.3766465483171237e+00
2.3820071311764868e+00
1.9185101251748728e+00
1.9220140789109736e+00
1.5491185497901818e+00
1.5514090442851283e+00
1.2511461474345695e+00
1.2526434702545273e+00
1.0106896215692462e+00
1.0116684605376014e+00
8.1658146644083240e-01
8.1722136795741018e-01
6.5984326069928478e-01
6.6026159059203993e-01
5.3325029644384969e-01
5.3352377742546930e-01
4.3098452499723022e-01
4.3116331241304751e-01
3.4835750956402683e-01
3.4847439160587479e-01
2.8158891473458136e-01
2.8166532633273544e-01
2.2762912347090544e-01
2.2767907758183911e-01
1.8401698413960177e-01
1.8404964167471932e-01
1.4876558087688782e-01
1.4878693077608432e-01
1.2027040190690123e-01
1.2028435943208199e-01
9.7235463418751375e-02
9.7244564923674795e-02
1.2798234728155469e-01
1.2797005003217612e-01
1.5830515866463118e-01
1.5828630249571488e-01
1.9581776852087390e-01
1.9578892547860741e-01
2.4222778193496683e-01
2.4218366260693425e-01
2.9964983711129689e-01
2.9958235058082500e-01
3.7070338125444874e-01
3.7060015129784252e-01
4.5863430324809401e-01
4.5847639851802019e-01
5.6746641950477705e-01
5.6722488138105853e-01
7.0219038477932127e-01
7.0182091577632499e-01
8.6899961022970451e-01
8.6843444805177850e-01
1.0755853291307764e+00
1.0747208142461167e+00
1.3315061848496699e+00
1.3301837368709242e+00
1.6486517493087105e+00
1.6466287519388341e+00
2.0418242811492351e+00
2.0387295080809169e+00
2.5294687000324183e+00
2.5247340376505725e+00
3.1345866793806114e+00
3.1273424511805845e+00
3.8858755651617711e+00
3.8747898236535536e+00
4.8191334064435507e+00
4.8021646031608194e+00
5.9789614775956341e+00
5.9529762600961078e+00
7.4207639512808417e+00
7.3809423685507216e+00
9.2129733952442212e+00
9.1518718901669924e+00
1.1439303206018366e+01
1.1345346650373566e+01
1.4200664507185808e+01
1.4055626761587749e+01
1.7616400774006490e+01
1.7390909776202559e+01
2.1825819599313665e+01
2.1470293363414491e+01
2.7045882112159735e+01
2.6431368239998196e+01
3.8374357052996544e+01
3.3683179869743050e+01
4.5254720425443253e+01
1.9130164017825876e+01
1.1547766453012828e+01
1.2294769135960774e+01
1.2891495435857857e+01
1.3492193031809830e+01
1.4278101057814505e+01
1.5035160144344376e+01
1.5551660109682432e+01
1.6810921711741546e+01
1.6611381954646998e+01
1.8585697425563705e+01
1.7438127529487037e+01
2.0129055457081858e+01
1.8069293605249833e+01
2.1336391258103703e+01
1.8557572129566946e+01
2.2230327489385573e+01
1.8945719979155839e+01
2.2887194868620206e+01
1.9260581847595610e+01
2.3379091923793897e+01
1.9516342826384523e+01
2.3754523526823647e+01
1.9719406074633657e+01
2.4040544775705047e+01
1.9872102184956713e+01
2.4250315412500608e+01
1.9974933102715561e+01
2.4389465879355953e+01
2.0027769444397638e+01
2.4460069328320291e+01
2.0030429342149755e+01
2.4462729224885351e+01
1.9982911709434443e+01
2.4397444481310497e+01
1.9885410339955431e+01
2.4263623554555249e+01
1.9738118298004835e+01
2.4059256966461575e+01
1.9540718196385985e+01
2.3778898818579382e+01
1.9291313188361656e+01
2.3409823086421646e+01
1.8984389945689493e+01
2.2925864454048959e+01
1.8607343356425996e+01
2.2280097962235889e+01
1.8135579052757478e+01
2.1402675361058918e+01
1.7528274560435289e+01
2.0219200411553114e+01
1.6731576854350102e+01
1.8705889703306159e+01
1.5700337848401336e+01
1.6959596955777691e+01
1.4440548578289546e+01
1.5197606140867558e+01
1.3044519852417650e+01
1.3645217275742327e+01
1.1673433071192973e+01
1.2420436626236608e+01
1.1521705733448572e+01
1.3801784918895663e+01
4.3329026851920474e+01
1.7204469069202428e+01
3.2288490455398993e+01
3.6979660720263126e+01
2.6365443492571810e+01
2.6979957270800604e+01
2.1447512717974803e+01
2.1803038953706118e+01
1.7381337250831791e+01
1.7606828248635733e+01
1.4051575858054431e+01
1.4196613603652324e+01
1.1343628968704921e+01
1.1437585524349787e+01
9.1511429712389152e+00
9.2122444763163038e+00
7.3806328706466502e+00
7.4204544533766938e+00
5.9528447723068005e+00
5.9788299898062878e+00
4.8021087069977089e+00
4.8190775102805539e+00
3.8747660469706218e+00
3.8858517884788033e+00
3.1273323312836672e+00
3.1345765594837358e+00
2.5247297282392100e+00
2.5294643906211935e+00
2.0387276723315022e+00
2.0418224453996392e+00
1.6466279698396180e+00
1.6486509672086820e+00
1.3301834037527931e+00
1.3315058517319172e+00
1.0747206724930314e+00
1.0755851873770745e+00
8.6843438785852156e-01
8.6899955003658547e-01
7.0182089032883233e-01
7.0219035933120311e-01
5.6722487071536132e-01
5.6746640883912358e-01
4.5847639412509272e-01
4.5863429885508961e-01
3.7060014955418308e-01
3.7070337950832527e-01
2.9958234994211957e-01
2.9964983647273535e-01
2.4218366241881983e-01
2.4222778174839138e-01
1.9578892546743826e-01
1.9581776850970642e-01
1.5828630255327911e-01
1.5830515871528170e-01
1.2797005022299540e-01
1.2798234746950790e-01
1.6843589438883383e-01
1.6841928577749704e-01
2.0834386376122005e-01
2.0831839930070203e-01
2.5771457826478616e-01
2.5767562691570434e-01
3.1879555115437308e-01
3.1873596973880830e-01
3.9437002485972145e-01
3.9427888683231160e-01
4.8788562728724083e-01
4.8774621877316049e-01
6.0361437092106185e-01
6.0340112523463441e-01
7.4685181982994797e-01
7.4652562790580890e-01
9.2416525419586382e-01
9.2366629016086432e-01
1.1437031728352711e+00
1.1429399170918695e+00
1.4155815773905756e+00
1.4144140195426786e+00
1.7523662287262980e+00
1.7505801587778222e+00
2.1696743954195190e+00
2.1669420412876161e+00
2.6869241950101848e+00
2.6827439209226180e+00
3.3282635460133672e+00
3.3218673880224299e+00
4.1237119079540658e+00
4.1139235772323577e+00
5.1105420465587041e+00
5.0955583176216157e+00
6.3349076988289497e+00
6.3119604198308519e+00
7.8536716307634116e+00
7.8185014037981606e+00
9.7362850881804288e+00
9.6823115296512761e+00
1.2066391472146597e+01
1.1983376994795981e+01
1.4942591693816226e+01
1.4814408628681059e+01
1.8477732327225681e+01
1.8278383930809060e+01
2.2797289859116702e+01
2.2482883096339485e+01
2.8097265584911060e+01
2.7545206921060739e+01
3.9246692582552313e+01
3.4776973169653068e+01
4.4649647333224650e+01
1.8669769055497973e+01
9.2374541177171938e+00
1.1029277991677876e+01
9.8407601155579716e+00
1.1458371017815834e+01
1.0665702510249059e+01
1.2051449049745152e+01
1.1732550801674170e+01
1.2877908400261369e+01
1.2992433578525455e+01
1.4002099106236733e+01
1.4318062437836033e+01
1.5436049483840504e+01
1.5552912658304411e+01
1.7082427231699985e+01
1.6584695602732225e+01
1.8736112834509701e+01
1.7380998475088735e+01
2.0184166085136532e+01
1.7970487423592040e+01
2.1315792407523322e+01
1.8403109609635244e+01
2.2136811948457130e+01
1.8722780028989050e+01
2.2711392822250232e+01
1.8958879298252668e+01
2.3107463348043865e+01
1.9128082589013836e+01
2.3374187351761162e+01
1.9238779211252034e+01
2.3540814804394167e+01
1.9294748310496530e+01
2.3622384165459135e+01
1.9297416222689538e+01
2.3625052067473572e+01
1.9246900726388972e+01
2.3548936281735021e+01
1.9142090141809188e+01
2.3388194813903564e+01
1.8979776368512344e+01
2.3128360221284773e+01
1.8752605311829999e+01
2.2741217705100016e+01
1.8445538989860093e+01
2.2179240578236495e+01
1.8031139719463322e+01
2.1376443435934373e+01
1.7466327061391940e+01
2.0269492821742890e+01
1.6698079976336349e+01
1.8849495008637334e+01
1.5688807396473491e+01
1.7218320015451482e+01
1.4460021280051839e+01
1.5578007254135640e+01
1.3120611251029471e+01
1.4130276786855234e+01
1.1834955200636587e+01
1.2980313561944479e+01
1.0741535856747770e+01
1.2127283421087137e+01
9.8955030816848968e+00
1.1513114934503173e+01
9.2775108506142097e+00
1.1069335474611306e+01
1.0739557165784838e+01
1.3826651700935342e+01
4.2786197526499016e+01
1.6806319183092590e+01
3.3447441641897562e+01
3.7917155849145409e+01
2.7480669848101634e+01
2.8032728430390598e+01
2.2460946849845421e+01
2.2775353612434913e+01
1.8269082677714160e+01
1.8468431074130820e+01
1.4810445325328018e+01
1.4938628390463125e+01
1.1981687829367702e+01
1.2064702306718287e+01
9.6815919497652629e+00
9.7355655082945081e+00
7.8181949795705261e+00
7.8533652065358712e+00
6.3118299476363697e+00
6.3347772266344409e+00
5.0955027579835033e+00
5.1104864869203990e+00
4.1138999122548476e+00
4.1236882429763284e+00
3.3218573052385403e+00
3.3282534632293133e+00
2.6827396238538834e+00
2.6869198979415416e+00
2.1669402096573314e+00
2.1696725637890171e+00
1.7505793780701320e+00
1.7523654480182109e+00
1.4144136869120705e+00
1.4155812447597746e+00
1.1429397755240129e+00
1.1437030312675449e+00
9.2366623005114934e-01
9.2416519408665432e-01
7.4652560250425992e-01
7.4685179442778027e-01
6.0340111460010915e-01
6.0361436028787807e-01
4.8774621440398064e-01
4.8788562291706822e-01
3.9427888510647485e-01
3.9437002313428343e-01
3.1873596911675794e-01
3.1879555052900915e-01
2.5767562673889977e-01
2.5771457808800829e-01
2.0831839929545334e-01
2.0834386376471875e-01
1.6841928616702337e-01
1.6843589477832174e-01
2.2167612248646010e-01
2.2165369810991475e-01
2.7419900062032165e-01
2.7416462227650112e-01
3.3917598300592777e-01
3.3912339660959673e-01
4.1956506417803929e-01
4.1948462596129754e-01
5.1902923353009478e-01
5.1890619180419595e-01
6.4210565484029181e-01
6.4191744434371623e-01
7.9441592518511983e-01
7.9412802794241144e-01
9.8292753528611365e-01
9.8248714814210258e-01
1.2162791226518932e+00
1.2156054682891282e+00
1.5051850864222709e+00
1.5041545864893093e+00
1.8629385897851181e+00
1.8613621701505270e+00
2.3060357100087945e+00
2.3036240497647111e+00
2.8549469227570436e+00
2.8512572097046571e+00
3.5350638594712702e+00
3.5294181297231115e+00
4.3778464645052111e+00
4.3692061593554676e+00
5.4221825970788942e+00
5.4089553520483111e+00
6.7159382072876062e+00
6.6956789511765891e+00
8.3176034691739336e+00
8.2865485890794375e+00
1.0297802234479780e+01
1.0250134418820119e+01
1.2740202940798817e+01
1.2666865861363412e+01
1.5741069643265387e+01
1.5627785107746270e+01
1.9406557881149961e+01
1.9230291026168647e+01
2.3848113255969722e+01
2.3569877297686833e+01